ITEM: TIMESTEP
100
ITEM: NUMBER OF ATOMS
5
ITEM: BOX BOUNDS pp pp pp
-3.0000000000000000e+01 3.0000000000000000e+01
-3.0000000000000000e+01 3.0000000000000000e+01
-3.0000000000000000e+01 3.0000000000000000e+01
ITEM: ATOMS id type xs ys zs
1 1 0.898221 0.30533 0.978594
2 1 0.903466 0.320111 0.978348
3 1 0.90986 0.337493 0.98213
4 1 0.917581 0.348352 0.98408
5 1 0.924025 0.362918 0.988251
ITEM: TIMESTEP
200
ITEM: NUMBER OF ATOMS
5
ITEM: BOX BOUNDS pp pp pp
-3.0000000000000000e+01 3.0000000000000000e+01
-3.0000000000000000e+01 3.0000000000000000e+01
-3.0000000000000000e+01 3.0000000000000000e+01
ITEM: ATOMS id type xs ys zs
1 1 0.898339 0.305579 0.981548
2 1 0.903102 0.321916 0.977884
3 1 0.907666 0.338332 0.981713
4 1 0.919259 0.347692 0.983041
5 1 0.924822 0.360892 0.987878
ITEM: TIMESTEP
300
ITEM: NUMBER OF ATOMS
5
ITEM: BOX BOUNDS pp pp pp
-3.0000000000000000e+01 3.0000000000000000e+01
-3.0000000000000000e+01 3.0000000000000000e+01
-3.0000000000000000e+01 3.0000000000000000e+01
ITEM: ATOMS id type xs ys zs
1 1 0.899014 0.306212 0.984587
2 1 0.902668 0.323744 0.977702
3 1 0.904616 0.338045 0.981072
4 1 0.921477 0.346907 0.981617
5 1 0.925834 0.359737 0.987728
ITEM: TIMESTEP
400
ITEM: NUMBER OF ATOMS
5
ITEM: BOX BOUNDS pp pp pp
-3.0000000000000000e+01 3.0000000000000000e+01
-3.0000000000000000e+01 3.0000000000000000e+01
-3.0000000000000000e+01 3.0000000000000000e+01
ITEM: ATOMS id type xs ys zs
1 1 0.899377 0.30775 0.987291
2 1 0.901648 0.323684 0.977789
3 1 0.902877 0.339158 0.9808
4 1 0.922158 0.344699 0.979617
5 1 0.927283 0.359207 0.987632
ITEM: TIMESTEP
500
ITEM: NUMBER OF ATOMS
5
ITEM: BOX BOUNDS pp pp pp
-3.0000000000000000e+01 3.0000000000000000e+01
-3.0000000000000000e+01 3.0000000000000000e+01
-3.0000000000000000e+01 3.0000000000000000e+01
ITEM: ATOMS id type xs ys zs
1 1 0.899884 0.310096 0.989679
2 1 0.90065 0.322371 0.978294
3 1 0.902896 0.341208 0.980718
4 1 0.921188 0.342542 0.978114
5 1 0.928224 0.358221 0.987151
ITEM: TIMESTEP
600
ITEM: NUMBER OF ATOMS
5
ITEM: BOX BOUNDS pp pp pp
-3.0000000000000000e+01 3.0000000000000000e+01
-3.0000000000000000e+01 3.0000000000000000e+01
-3.0000000000000000e+01 3.0000000000000000e+01
ITEM: ATOMS id type xs ys zs
1 1 0.900321 0.312637 0.991941
2 1 0.900061 0.322634 0.979114
3 1 0.903612 0.342019 0.98042
4 1 0.91975 0.341441 0.9774
5 1 0.9283 0.355949 0.986231
ITEM: TIMESTEP
700
ITEM: NUMBER OF ATOMS
5
ITEM: BOX BOUNDS pp pp pp
-3.0000000000000000e+01 3.0000000000000000e+01
-3.0000000000000000e+01 3.0000000000000000e+01
-3.0000000000000000e+01 3.0000000000000000e+01
ITEM: ATOMS id type xs ys zs
1 1 0.900466 0.31491 0.99438
2 1 0.89957 0.324973 0.979669
3 1 0.903993 0.341135 0.980194
4 1 0.918972 0.341212 0.977197
5 1 0.927702 0.353012 0.98467
ITEM: TIMESTEP
800
ITEM: NUMBER OF ATOMS
5
ITEM: BOX BOUNDS pp pp pp
-3.0000000000000000e+01 3.0000000000000000e+01
-3.0000000000000000e+01 3.0000000000000000e+01
-3.0000000000000000e+01 3.0000000000000000e+01
ITEM: ATOMS id type xs ys zs
1 1 0.900395 0.317644 0.996308
2 1 0.899162 0.327249 0.980512
3 1 0.903905 0.339854 0.98046
4 1 0.918917 0.340785 0.97668
5 1 0.926925 0.350028 0.982984
ITEM: TIMESTEP
900
ITEM: NUMBER OF ATOMS
5
ITEM: BOX BOUNDS pp pp pp
-3.0000000000000000e+01 3.0000000000000000e+01
-3.0000000000000000e+01 3.0000000000000000e+01
-3.0000000000000000e+01 3.0000000000000000e+01
ITEM: ATOMS id type xs ys zs
1 1 0.900367 0.321263 0.997456
2 1 0.898407 0.327586 0.982223
3 1 0.903962 0.340204 0.980907
4 1 0.918547 0.339737 0.97534
5 1 0.926798 0.34798 0.982349
ITEM: TIMESTEP
1000
ITEM: NUMBER OF ATOMS
5
ITEM: BOX BOUNDS pp pp pp
-3.0000000000000000e+01 3.0000000000000000e+01
-3.0000000000000000e+01 3.0000000000000000e+01
-3.0000000000000000e+01 3.0000000000000000e+01
ITEM: ATOMS id type xs ys zs
1 1 0.900226 0.325187 0.998349
2 1 0.897473 0.326454 0.984151
3 1 0.90427 0.342192 0.981606
4 1 0.917401 0.33774 0.972824
5 1 0.927568 0.346893 0.982621
ITEM: TIMESTEP
1100
ITEM: NUMBER OF ATOMS
5
ITEM: BOX BOUNDS pp pp pp
-3.0000000000000000e+01 3.0000000000000000e+01
-3.0000000000000000e+01 3.0000000000000000e+01
-3.0000000000000000e+01 3.0000000000000000e+01
ITEM: ATOMS id type xs ys zs
4 1 0.916474 0.335533 0.970468
1 1 0.900079 0.329282 0.9998
2 1 0.896329 0.32556 0.985114
3 1 0.904577 0.343521 0.982709
5 1 0.927951 0.346098 0.983035
ITEM: TIMESTEP
1200
ITEM: NUMBER OF ATOMS
5
ITEM: BOX BOUNDS pp pp pp
-3.0000000000000000e+01 3.0000000000000000e+01
-3.0000000000000000e+01 3.0000000000000000e+01
-3.0000000000000000e+01 3.0000000000000000e+01
ITEM: ATOMS id type xs ys zs
4 1 0.915826 0.334883 0.970236
1 1 0.899999 0.333496 0.00160798
2 1 0.895554 0.325885 0.985602
3 1 0.90473 0.342468 0.983816
5 1 0.927106 0.344329 0.98217
ITEM: TIMESTEP
1300
ITEM: NUMBER OF ATOMS
5
ITEM: BOX BOUNDS pp pp pp
-3.0000000000000000e+01 3.0000000000000000e+01
-3.0000000000000000e+01 3.0000000000000000e+01
-3.0000000000000000e+01 3.0000000000000000e+01
ITEM: ATOMS id type xs ys zs
4 1 0.915251 0.335187 0.971682
1 1 0.899878 0.337728 0.00216249
2 1 0.895496 0.327672 0.986525
3 1 0.90538 0.339805 0.984677
5 1 0.925174 0.341907 0.980403
ITEM: TIMESTEP
1400
ITEM: NUMBER OF ATOMS
5
ITEM: BOX BOUNDS pp pp pp
-3.0000000000000000e+01 3.0000000000000000e+01
-3.0000000000000000e+01 3.0000000000000000e+01
-3.0000000000000000e+01 3.0000000000000000e+01
ITEM: ATOMS id type xs ys zs
4 1 0.913716 0.33502 0.972766
1 1 0.899427 0.341096 0.00171105
2 1 0.895659 0.33014 0.988676
3 1 0.9068 0.33778 0.984934
5 1 0.923518 0.339603 0.979122
ITEM: TIMESTEP
1500
ITEM: NUMBER OF ATOMS
5
ITEM: BOX BOUNDS pp pp pp
-3.0000000000000000e+01 3.0000000000000000e+01
-3.0000000000000000e+01 3.0000000000000000e+01
-3.0000000000000000e+01 3.0000000000000000e+01
ITEM: ATOMS id type xs ys zs
4 1 0.91059 0.333717 0.971906
1 1 0.898698 0.344338 0.00074472
2 1 0.894968 0.332412 0.991399
3 1 0.908154 0.336758 0.986143
5 1 0.924409 0.338061 0.978349
ITEM: TIMESTEP
1600
ITEM: NUMBER OF ATOMS
5
ITEM: BOX BOUNDS pp pp pp
-3.0000000000000000e+01 3.0000000000000000e+01
-3.0000000000000000e+01 3.0000000000000000e+01
-3.0000000000000000e+01 3.0000000000000000e+01
ITEM: ATOMS id type xs ys zs
4 1 0.907162 0.331948 0.970232
1 1 0.897762 0.347966 8.93174e-05
2 1 0.893298 0.334011 0.993943
3 1 0.909617 0.33624 0.988256
5 1 0.926289 0.336983 0.977328
ITEM: TIMESTEP
1700
ITEM: NUMBER OF ATOMS
5
ITEM: BOX BOUNDS pp pp pp
-3.0000000000000000e+01 3.0000000000000000e+01
-3.0000000000000000e+01 3.0000000000000000e+01
-3.0000000000000000e+01 3.0000000000000000e+01
ITEM: ATOMS id type xs ys zs
4 1 0.905881 0.331081 0.970579
1 1 0.897049 0.351794 0.99955
2 1 0.892017 0.335142 0.996064
3 1 0.91079 0.335717 0.989344
5 1 0.92575 0.335647 0.975662
ITEM: TIMESTEP
1800
ITEM: NUMBER OF ATOMS
5
ITEM: BOX BOUNDS pp pp pp
-3.0000000000000000e+01 3.0000000000000000e+01
-3.0000000000000000e+01 3.0000000000000000e+01
-3.0000000000000000e+01 3.0000000000000000e+01
ITEM: ATOMS id type xs ys zs
4 1 0.906675 0.330997 0.973334
1 1 0.896108 0.354812 0.998695
2 1 0.892423 0.336744 0.997806
3 1 0.910332 0.334916 0.989218
5 1 0.922836 0.333843 0.973208
ITEM: TIMESTEP
1900
ITEM: NUMBER OF ATOMS
5
ITEM: BOX BOUNDS pp pp pp
-3.0000000000000000e+01 3.0000000000000000e+01
-3.0000000000000000e+01 3.0000000000000000e+01
-3.0000000000000000e+01 3.0000000000000000e+01
ITEM: ATOMS id type xs ys zs
4 1 0.907148 0.330812 0.976209
1 1 0.894947 0.356559 0.997426
2 1 0.894566 0.339104 0.998814
3 1 0.908163 0.334146 0.989491
5 1 0.920178 0.331967 0.971008
ITEM: TIMESTEP
2000
ITEM: NUMBER OF ATOMS
5
ITEM: BOX BOUNDS pp pp pp
-3.0000000000000000e+01 3.0000000000000000e+01
-3.0000000000000000e+01 3.0000000000000000e+01
-3.0000000000000000e+01 3.0000000000000000e+01
ITEM: ATOMS id type xs ys zs
4 1 0.906073 0.330085 0.978141
1 1 0.893925 0.357524 0.996265
2 1 0.897225 0.341929 0.999623
3 1 0.905683 0.333967 0.991212
5 1 0.918923 0.330107 0.968833
ITEM: TIMESTEP
2100
ITEM: NUMBER OF ATOMS
5
ITEM: BOX BOUNDS pp pp pp
-3.0000000000000000e+01 3.0000000000000000e+01
-3.0000000000000000e+01 3.0000000000000000e+01
-3.0000000000000000e+01 3.0000000000000000e+01
ITEM: ATOMS id type xs ys zs
5 1 0.918181 0.328214 0.966323
4 1 0.904456 0.329142 0.978684
2 1 0.899065 0.345166 0.00109253
3 1 0.903857 0.333462 0.993788
1 1 0.892817 0.358494 0.99496
ITEM: TIMESTEP
2200
ITEM: NUMBER OF ATOMS
5
ITEM: BOX BOUNDS pp pp pp
-3.0000000000000000e+01 3.0000000000000000e+01
-3.0000000000000000e+01 3.0000000000000000e+01
-3.0000000000000000e+01 3.0000000000000000e+01
ITEM: ATOMS id type xs ys zs
5 1 0.916292 0.326624 0.964507
4 1 0.903645 0.328273 0.978577
2 1 0.900566 0.348687 0.00328996
3 1 0.902411 0.332298 0.996421
1 1 0.891649 0.35992 0.993375
ITEM: TIMESTEP
2300
ITEM: NUMBER OF ATOMS
5
ITEM: BOX BOUNDS pp pp pp
-3.0000000000000000e+01 3.0000000000000000e+01
-3.0000000000000000e+01 3.0000000000000000e+01
-3.0000000000000000e+01 3.0000000000000000e+01
ITEM: ATOMS id type xs ys zs
5 1 0.913273 0.325225 0.963666
4 1 0.903877 0.327677 0.978951
2 1 0.901805 0.351228 0.00486738
3 1 0.901131 0.331471 0.998064
1 1 0.890749 0.360896 0.992332
ITEM: TIMESTEP
2400
ITEM: NUMBER OF ATOMS
5
ITEM: BOX BOUNDS pp pp pp
-3.0000000000000000e+01 3.0000000000000000e+01
-3.0000000000000000e+01 3.0000000000000000e+01
-3.0000000000000000e+01 3.0000000000000000e+01
ITEM: ATOMS id type xs ys zs
5 1 0.909959 0.323779 0.963637
4 1 0.904168 0.327581 0.980143
2 1 0.902152 0.352373 0.00478775
3 1 0.900551 0.332485 0.99878
1 1 0.890713 0.360817 0.992415
ITEM: TIMESTEP
2500
ITEM: NUMBER OF ATOMS
5
ITEM: BOX BOUNDS pp pp pp
-3.0000000000000000e+01 3.0000000000000000e+01
-3.0000000000000000e+01 3.0000000000000000e+01
-3.0000000000000000e+01 3.0000000000000000e+01
ITEM: ATOMS id type xs ys zs
5 1 0.906172 0.322258 0.96455
4 1 0.904284 0.327695 0.982293
2 1 0.901526 0.351737 0.00326429
3 1 0.900545 0.3352 0.998393
1 1 0.891121 0.360116 0.993548
ITEM: TIMESTEP
2600
ITEM: NUMBER OF ATOMS
5
ITEM: BOX BOUNDS pp pp pp
-3.0000000000000000e+01 3.0000000000000000e+01
-3.0000000000000000e+01 3.0000000000000000e+01
-3.0000000000000000e+01 3.0000000000000000e+01
ITEM: ATOMS id type xs ys zs
5 1 0.90221 0.321023 0.966617
4 1 0.904342 0.327731 0.984114
2 1 0.900975 0.35067 0.00186406
3 1 0.900901 0.337876 0.997482
1 1 0.89114 0.359333 0.994515
ITEM: TIMESTEP
2700
ITEM: NUMBER OF ATOMS
5
ITEM: BOX BOUNDS pp pp pp
-3.0000000000000000e+01 3.0000000000000000e+01
-3.0000000000000000e+01 3.0000000000000000e+01
-3.0000000000000000e+01 3.0000000000000000e+01
ITEM: ATOMS id type xs ys zs
5 1 0.898047 0.320208 0.96967
4 1 0.903975 0.327658 0.984696
2 1 0.901024 0.350637 0.00156357
3 1 0.901253 0.339119 0.995919
1 1 0.890397 0.359089 0.995059
ITEM: TIMESTEP
2800
ITEM: NUMBER OF ATOMS
5
ITEM: BOX BOUNDS pp pp pp
-3.0000000000000000e+01 3.0000000000000000e+01
-3.0000000000000000e+01 3.0000000000000000e+01
-3.0000000000000000e+01 3.0000000000000000e+01
ITEM: ATOMS id type xs ys zs
5 1 0.893921 0.319775 0.973375
4 1 0.903176 0.327184 0.984713
2 1 0.901668 0.352221 0.00251013
3 1 0.901311 0.338857 0.993488
1 1 0.888815 0.359113 0.995127
ITEM: TIMESTEP
2900
ITEM: NUMBER OF ATOMS
5
ITEM: BOX BOUNDS pp pp pp
-3.0000000000000000e+01 3.0000000000000000e+01
-3.0000000000000000e+01 3.0000000000000000e+01
-3.0000000000000000e+01 3.0000000000000000e+01
ITEM: ATOMS id type xs ys zs
5 1 0.889501 0.319121 0.977068
4 1 0.902728 0.326016 0.984304
2 1 0.902182 0.353632 0.00359687
3 1 0.901072 0.339492 0.991293
1 1 0.887283 0.358956 0.995353
ITEM: TIMESTEP
3000
ITEM: NUMBER OF ATOMS
5
ITEM: BOX BOUNDS pp pp pp
-3.0000000000000000e+01 3.0000000000000000e+01
-3.0000000000000000e+01 3.0000000000000000e+01
-3.0000000000000000e+01 3.0000000000000000e+01
ITEM: ATOMS id type xs ys zs
5 1 0.885328 0.318419 0.980863
4 1 0.902292 0.324048 0.983584
2 1 0.901794 0.354364 0.00340536
3 1 0.900533 0.341671 0.990126
1 1 0.886504 0.358554 0.995754
ITEM: TIMESTEP
3100
ITEM: NUMBER OF ATOMS
5
ITEM: BOX BOUNDS pp pp pp
-3.0000000000000000e+01 3.0000000000000000e+01
-3.0000000000000000e+01 3.0000000000000000e+01
-3.0000000000000000e+01 3.0000000000000000e+01
ITEM: ATOMS id type xs ys zs
2 1 0.900761 0.3546 0.00207819
5 1 0.882111 0.318082 0.984788
4 1 0.901033 0.322955 0.983056
3 1 0.899688 0.343726 0.989186
1 1 0.886107 0.357899 0.996187
ITEM: TIMESTEP
3200
ITEM: NUMBER OF ATOMS
5
ITEM: BOX BOUNDS pp pp pp
-3.0000000000000000e+01 3.0000000000000000e+01
-3.0000000000000000e+01 3.0000000000000000e+01
-3.0000000000000000e+01 3.0000000000000000e+01
ITEM: ATOMS id type xs ys zs
2 1 0.900042 0.354588 0.000751492
5 1 0.880506 0.318274 0.988464
4 1 0.897767 0.323837 0.983611
3 1 0.898679 0.343631 0.987713
1 1 0.885181 0.357072 0.996468
ITEM: TIMESTEP
3300
ITEM: NUMBER OF ATOMS
5
ITEM: BOX BOUNDS pp pp pp
-3.0000000000000000e+01 3.0000000000000000e+01
-3.0000000000000000e+01 3.0000000000000000e+01
-3.0000000000000000e+01 3.0000000000000000e+01
ITEM: ATOMS id type xs ys zs
2 1 0.899973 0.354498 0.998885
5 1 0.880158 0.319061 0.991774
4 1 0.89336 0.326419 0.985087
3 1 0.897361 0.341979 0.98608
1 1 0.883967 0.355965 0.996617
ITEM: TIMESTEP
3400
ITEM: NUMBER OF ATOMS
5
ITEM: BOX BOUNDS pp pp pp
-3.0000000000000000e+01 3.0000000000000000e+01
-3.0000000000000000e+01 3.0000000000000000e+01
-3.0000000000000000e+01 3.0000000000000000e+01
ITEM: ATOMS id type xs ys zs
2 1 0.900281 0.353738 0.996519
5 1 0.879929 0.319693 0.995017
4 1 0.888792 0.328953 0.986755
3 1 0.895951 0.341357 0.985042
1 1 0.882683 0.354587 0.996865
ITEM: TIMESTEP
3500
ITEM: NUMBER OF ATOMS
5
ITEM: BOX BOUNDS pp pp pp
-3.0000000000000000e+01 3.0000000000000000e+01
-3.0000000000000000e+01 3.0000000000000000e+01
-3.0000000000000000e+01 3.0000000000000000e+01
ITEM: ATOMS id type xs ys zs
2 1 0.900042 0.352486 0.994123
5 1 0.87912 0.319991 0.998532
4 1 0.884189 0.330919 0.988142
3 1 0.894632 0.342136 0.984556
1 1 0.882035 0.352642 0.997216
ITEM: TIMESTEP
3600
ITEM: NUMBER OF ATOMS
5
ITEM: BOX BOUNDS pp pp pp
-3.0000000000000000e+01 3.0000000000000000e+01
-3.0000000000000000e+01 3.0000000000000000e+01
-3.0000000000000000e+01 3.0000000000000000e+01
ITEM: ATOMS id type xs ys zs
2 1 0.899291 0.351822 0.992487
5 1 0.878322 0.320126 0.00189861
4 1 0.879569 0.332718 0.989386
3 1 0.893317 0.342975 0.983657
1 1 0.882506 0.350371 0.99716
ITEM: TIMESTEP
3700
ITEM: NUMBER OF ATOMS
5
ITEM: BOX BOUNDS pp pp pp
-3.0000000000000000e+01 3.0000000000000000e+01
-3.0000000000000000e+01 3.0000000000000000e+01
-3.0000000000000000e+01 3.0000000000000000e+01
ITEM: ATOMS id type xs ys zs
2 1 0.89841 0.352159 0.992292
5 1 0.877482 0.320839 0.00476971
4 1 0.875341 0.33421 0.990727
3 1 0.891008 0.342613 0.981838
1 1 0.883206 0.348133 0.997003
ITEM: TIMESTEP
3800
ITEM: NUMBER OF ATOMS
5
ITEM: BOX BOUNDS pp pp pp
-3.0000000000000000e+01 3.0000000000000000e+01
-3.0000000000000000e+01 3.0000000000000000e+01
-3.0000000000000000e+01 3.0000000000000000e+01
ITEM: ATOMS id type xs ys zs
2 1 0.897602 0.353035 0.992064
5 1 0.876496 0.32243 0.00611844
4 1 0.872086 0.334195 0.991671
3 1 0.887512 0.341006 0.980244
1 1 0.884025 0.347179 0.997836
ITEM: TIMESTEP
3900
ITEM: NUMBER OF ATOMS
5
ITEM: BOX BOUNDS pp pp pp
-3.0000000000000000e+01 3.0000000000000000e+01
-3.0000000000000000e+01 3.0000000000000000e+01
-3.0000000000000000e+01 3.0000000000000000e+01
ITEM: ATOMS id type xs ys zs
2 1 0.89666 0.353219 0.990782
5 1 0.875509 0.325174 0.00649412
4 1 0.870749 0.333736 0.992422
3 1 0.883592 0.339643 0.980896
1 1 0.884694 0.346068 0.998776
ITEM: TIMESTEP
4000
ITEM: NUMBER OF ATOMS
5
ITEM: BOX BOUNDS pp pp pp
-3.0000000000000000e+01 3.0000000000000000e+01
-3.0000000000000000e+01 3.0000000000000000e+01
-3.0000000000000000e+01 3.0000000000000000e+01
ITEM: ATOMS id type xs ys zs
2 1 0.894765 0.352029 0.988534
5 1 0.874788 0.32833 0.00652723
4 1 0.870387 0.333511 0.992745
3 1 0.88065 0.339524 0.983173
1 1 0.885003 0.344472 0.999586
ITEM: TIMESTEP
4100
ITEM: NUMBER OF ATOMS
5
ITEM: BOX BOUNDS pp pp pp
-3.0000000000000000e+01 3.0000000000000000e+01
-3.0000000000000000e+01 3.0000000000000000e+01
-3.0000000000000000e+01 3.0000000000000000e+01
ITEM: ATOMS id type xs ys zs
5 1 0.87454 0.331545 0.00707381
4 1 0.869492 0.333065 0.993057
3 1 0.878877 0.340302 0.984583
2 1 0.891717 0.349906 0.985666
1 1 0.885559 0.343054 0.000991458
ITEM: TIMESTEP
4200
ITEM: NUMBER OF ATOMS
5
ITEM: BOX BOUNDS pp pp pp
-3.0000000000000000e+01 3.0000000000000000e+01
-3.0000000000000000e+01 3.0000000000000000e+01
-3.0000000000000000e+01 3.0000000000000000e+01
ITEM: ATOMS id type xs ys zs
5 1 0.873664 0.333429 0.00900591
4 1 0.867845 0.33252 0.993236
3 1 0.877116 0.341132 0.984812
2 1 0.888746 0.347635 0.983284
1 1 0.887811 0.342943 0.00148154
ITEM: TIMESTEP
4300
ITEM: NUMBER OF ATOMS
5
ITEM: BOX BOUNDS pp pp pp
-3.0000000000000000e+01 3.0000000000000000e+01
-3.0000000000000000e+01 3.0000000000000000e+01
-3.0000000000000000e+01 3.0000000000000000e+01
ITEM: ATOMS id type xs ys zs
5 1 0.872229 0.335027 0.010973
4 1 0.866169 0.331992 0.99381
3 1 0.874487 0.341496 0.985059
2 1 0.887179 0.34573 0.981858
1 1 0.890027 0.343296 0.000216419
ITEM: TIMESTEP
4400
ITEM: NUMBER OF ATOMS
5
ITEM: BOX BOUNDS pp pp pp
-3.0000000000000000e+01 3.0000000000000000e+01
-3.0000000000000000e+01 3.0000000000000000e+01
-3.0000000000000000e+01 3.0000000000000000e+01
ITEM: ATOMS id type xs ys zs
5 1 0.870632 0.336499 0.0120738
4 1 0.865046 0.331165 0.995387
3 1 0.871033 0.341996 0.985491
2 1 0.887123 0.344117 0.981464
1 1 0.891416 0.343473 0.997845
ITEM: TIMESTEP
4500
ITEM: NUMBER OF ATOMS
5
ITEM: BOX BOUNDS pp pp pp
-3.0000000000000000e+01 3.0000000000000000e+01
-3.0000000000000000e+01 3.0000000000000000e+01
-3.0000000000000000e+01 3.0000000000000000e+01
ITEM: ATOMS id type xs ys zs
5 1 0.868924 0.337966 0.0120216
4 1 0.864265 0.330414 0.997749
3 1 0.867726 0.342539 0.985628
2 1 0.887253 0.342298 0.981315
1 1 0.892707 0.343639 0.995461
ITEM: TIMESTEP
4600
ITEM: NUMBER OF ATOMS
5
ITEM: BOX BOUNDS pp pp pp
-3.0000000000000000e+01 3.0000000000000000e+01
-3.0000000000000000e+01 3.0000000000000000e+01
-3.0000000000000000e+01 3.0000000000000000e+01
ITEM: ATOMS id type xs ys zs
5 1 0.867429 0.339336 0.0117545
4 1 0.863711 0.329914 0.999761
3 1 0.866231 0.34267 0.98601
2 1 0.885402 0.340352 0.98077
1 1 0.894195 0.344055 0.993998
ITEM: TIMESTEP
4700
ITEM: NUMBER OF ATOMS
5
ITEM: BOX BOUNDS pp pp pp
-3.0000000000000000e+01 3.0000000000000000e+01
-3.0000000000000000e+01 3.0000000000000000e+01
-3.0000000000000000e+01 3.0000000000000000e+01
ITEM: ATOMS id type xs ys zs
5 1 0.865914 0.340761 0.0120319
4 1 0.863142 0.329927 0.000298221
3 1 0.86642 0.341855 0.986974
2 1 0.881993 0.338776 0.980324
1 1 0.89602 0.344417 0.992809
ITEM: TIMESTEP
4800
ITEM: NUMBER OF ATOMS
5
ITEM: BOX BOUNDS pp pp pp
-3.0000000000000000e+01 3.0000000000000000e+01
-3.0000000000000000e+01 3.0000000000000000e+01
-3.0000000000000000e+01 3.0000000000000000e+01
ITEM: ATOMS id type xs ys zs
5 1 0.864084 0.342369 0.0123698
4 1 0.862997 0.330493 2.75558e-05
3 1 0.86703 0.340126 0.988635
2 1 0.879279 0.337839 0.981052
1 1 0.896528 0.344426 0.990375
ITEM: TIMESTEP
4900
ITEM: NUMBER OF ATOMS
5
ITEM: BOX BOUNDS pp pp pp
-3.0000000000000000e+01 3.0000000000000000e+01
-3.0000000000000000e+01 3.0000000000000000e+01
-3.0000000000000000e+01 3.0000000000000000e+01
ITEM: ATOMS id type xs ys zs
5 1 0.862423 0.343671 0.0124527
4 1 0.862925 0.330797 1.0002
3 1 0.866643 0.338887 0.990626
2 1 0.879006 0.337441 0.982349
1 1 0.895041 0.3438 0.986921
ITEM: TIMESTEP
5000
ITEM: NUMBER OF ATOMS
5
ITEM: BOX BOUNDS pp pp pp
-3.0000000000000000e+01 3.0000000000000000e+01
-3.0000000000000000e+01 3.0000000000000000e+01
-3.0000000000000000e+01 3.0000000000000000e+01
ITEM: ATOMS id type xs ys zs
5 1 0.860956 0.344638 0.0115152
4 1 0.862465 0.330505 0.00238608
3 1 0.865961 0.339299 0.9921
2 1 0.879862 0.336776 0.983847
1 1 0.893093 0.342841 0.983404
ITEM: TIMESTEP
5100
ITEM: NUMBER OF ATOMS
5
ITEM: BOX BOUNDS pp pp pp
-3.0000000000000000e+01 3.0000000000000000e+01
-3.0000000000000000e+01 3.0000000000000000e+01
-3.0000000000000000e+01 3.0000000000000000e+01
ITEM: ATOMS id type xs ys zs
4 1 0.861669 0.329229 0.00561937
5 1 0.859705 0.345479 0.00991333
3 1 0.865573 0.340584 0.993034
2 1 0.880297 0.335764 0.985481
1 1 0.892357 0.342356 0.979721
ITEM: TIMESTEP
5200
ITEM: NUMBER OF ATOMS
5
ITEM: BOX BOUNDS pp pp pp
-3.0000000000000000e+01 3.0000000000000000e+01
-3.0000000000000000e+01 3.0000000000000000e+01
-3.0000000000000000e+01 3.0000000000000000e+01
ITEM: ATOMS id type xs ys zs
4 1 0.860803 0.328442 0.00809171
5 1 0.858558 0.346569 0.00874514
3 1 0.865717 0.34138 0.993944
2 1 0.879887 0.334789 0.987483
1 1 0.892192 0.342287 0.975767
ITEM: TIMESTEP
5300
ITEM: NUMBER OF ATOMS
5
ITEM: BOX BOUNDS pp pp pp
-3.0000000000000000e+01 3.0000000000000000e+01
-3.0000000000000000e+01 3.0000000000000000e+01
-3.0000000000000000e+01 3.0000000000000000e+01
ITEM: ATOMS id type xs ys zs
4 1 0.860027 0.329614 0.00947686
5 1 0.856977 0.347343 0.00884015
3 1 0.86651 0.340386 0.994789
2 1 0.879872 0.3341 0.988938
1 1 0.891128 0.341496 0.972642
ITEM: TIMESTEP
5400
ITEM: NUMBER OF ATOMS
5
ITEM: BOX BOUNDS pp pp pp
-3.0000000000000000e+01 3.0000000000000000e+01
-3.0000000000000000e+01 3.0000000000000000e+01
-3.0000000000000000e+01 3.0000000000000000e+01
ITEM: ATOMS id type xs ys zs
4 1 0.859438 0.332334 0.009555
5 1 0.855524 0.347469 0.00933081
3 1 0.867031 0.338401 0.996771
2 1 0.881206 0.33403 0.988442
1 1 0.888814 0.340216 0.971385
ITEM: TIMESTEP
5500
ITEM: NUMBER OF ATOMS
5
ITEM: BOX BOUNDS pp pp pp
-3.0000000000000000e+01 3.0000000000000000e+01
-3.0000000000000000e+01 3.0000000000000000e+01
-3.0000000000000000e+01 3.0000000000000000e+01
ITEM: ATOMS id type xs ys zs
4 1 0.858735 0.334548 0.00978207
5 1 0.854256 0.348122 0.00970617
3 1 0.86775 0.336196 0.998762
2 1 0.883149 0.334922 0.986584
1 1 0.885516 0.33811 0.971391
ITEM: TIMESTEP
5600
ITEM: NUMBER OF ATOMS
5
ITEM: BOX BOUNDS pp pp pp
-3.0000000000000000e+01 3.0000000000000000e+01
-3.0000000000000000e+01 3.0000000000000000e+01
-3.0000000000000000e+01 3.0000000000000000e+01
ITEM: ATOMS id type xs ys zs
4 1 0.857524 0.335387 0.0109028
5 1 0.85269 0.349737 0.00999027
3 1 0.870216 0.334181 0.999001
2 1 0.883835 0.335873 0.986261
1 1 0.881893 0.335925 0.9709
ITEM: TIMESTEP
5700
ITEM: NUMBER OF ATOMS
5
ITEM: BOX BOUNDS pp pp pp
-3.0000000000000000e+01 3.0000000000000000e+01
-3.0000000000000000e+01 3.0000000000000000e+01
-3.0000000000000000e+01 3.0000000000000000e+01
ITEM: ATOMS id type xs ys zs
4 1 0.856689 0.335406 0.0115289
5 1 0.850914 0.352017 0.0100895
3 1 0.8733 0.332384 0.998629
2 1 0.883959 0.336827 0.987242
1 1 0.87833 0.334122 0.96978
ITEM: TIMESTEP
5800
ITEM: NUMBER OF ATOMS
5
ITEM: BOX BOUNDS pp pp pp
-3.0000000000000000e+01 3.0000000000000000e+01
-3.0000000000000000e+01 3.0000000000000000e+01
-3.0000000000000000e+01 3.0000000000000000e+01
ITEM: ATOMS id type xs ys zs
4 1 0.857427 0.335757 0.0104956
5 1 0.849357 0.353721 0.0102127
3 1 0.874444 0.331084 0.999659
2 1 0.883724 0.337512 0.987176
1 1 0.875053 0.332847 0.96976
ITEM: TIMESTEP
5900
ITEM: NUMBER OF ATOMS
5
ITEM: BOX BOUNDS pp pp pp
-3.0000000000000000e+01 3.0000000000000000e+01
-3.0000000000000000e+01 3.0000000000000000e+01
-3.0000000000000000e+01 3.0000000000000000e+01
ITEM: ATOMS id type xs ys zs
4 1 0.858974 0.337259 0.00813762
5 1 0.848336 0.353901 0.0102357
3 1 0.873704 0.330146 0.00157265
2 1 0.882632 0.337325 0.985653
1 1 0.873052 0.332122 0.971225
ITEM: TIMESTEP
6000
ITEM: NUMBER OF ATOMS
5
ITEM: BOX BOUNDS pp pp pp
-3.0000000000000000e+01 3.0000000000000000e+01
-3.0000000000000000e+01 3.0000000000000000e+01
-3.0000000000000000e+01 3.0000000000000000e+01
ITEM: ATOMS id type xs ys zs
4 1 0.860287 0.340323 0.00565796
5 1 0.848014 0.352282 0.00991031
3 1 0.873207 0.329994 0.00230875
2 1 0.880557 0.336392 0.984796
1 1 0.871362 0.331433 0.973407
ITEM: TIMESTEP
6100
ITEM: NUMBER OF ATOMS
5
ITEM: BOX BOUNDS pp pp pp
-3.0000000000000000e+01 3.0000000000000000e+01
-3.0000000000000000e+01 3.0000000000000000e+01
-3.0000000000000000e+01 3.0000000000000000e+01
ITEM: ATOMS id type xs ys zs
3 1 0.873529 0.330457 0.00125859
5 1 0.847986 0.350116 0.00954373
4 1 0.861593 0.343985 0.00310539
1 1 0.869277 0.330082 0.97517
2 1 0.878216 0.33477 0.986002
ITEM: TIMESTEP
6200
ITEM: NUMBER OF ATOMS
5
ITEM: BOX BOUNDS pp pp pp
-3.0000000000000000e+01 3.0000000000000000e+01
-3.0000000000000000e+01 3.0000000000000000e+01
-3.0000000000000000e+01 3.0000000000000000e+01
ITEM: ATOMS id type xs ys zs
3 1 0.873187 0.331772 0.000241586
5 1 0.847909 0.348034 0.00911123
4 1 0.863671 0.346696 0.000434188
1 1 0.866573 0.328357 0.976539
2 1 0.876455 0.333644 0.988025
ITEM: TIMESTEP
6300
ITEM: NUMBER OF ATOMS
5
ITEM: BOX BOUNDS pp pp pp
-3.0000000000000000e+01 3.0000000000000000e+01
-3.0000000000000000e+01 3.0000000000000000e+01
-3.0000000000000000e+01 3.0000000000000000e+01
ITEM: ATOMS id type xs ys zs
3 1 0.871662 0.333162 0.000808896
5 1 0.84874 0.34603 0.00834272
4 1 0.865612 0.348791 0.998084
1 1 0.863552 0.326694 0.977879
2 1 0.875376 0.332934 0.98876
ITEM: TIMESTEP
6400
ITEM: NUMBER OF ATOMS
5
ITEM: BOX BOUNDS pp pp pp
-3.0000000000000000e+01 3.0000000000000000e+01
-3.0000000000000000e+01 3.0000000000000000e+01
-3.0000000000000000e+01 3.0000000000000000e+01
ITEM: ATOMS id type xs ys zs
3 1 0.869238 0.334644 0.00323177
5 1 0.851197 0.344234 0.0062118
4 1 0.866571 0.350112 0.996604
1 1 0.86053 0.325341 0.979361
2 1 0.874658 0.332512 0.987543
ITEM: TIMESTEP
6500
ITEM: NUMBER OF ATOMS
5
ITEM: BOX BOUNDS pp pp pp
-3.0000000000000000e+01 3.0000000000000000e+01
-3.0000000000000000e+01 3.0000000000000000e+01
-3.0000000000000000e+01 3.0000000000000000e+01
ITEM: ATOMS id type xs ys zs
3 1 0.867831 0.335759 0.00514588
5 1 0.85401 0.343209 0.00333277
4 1 0.866634 0.350438 0.995588
1 1 0.857863 0.32439 0.98112
2 1 0.873072 0.332135 0.986122
ITEM: TIMESTEP
6600
ITEM: NUMBER OF ATOMS
5
ITEM: BOX BOUNDS pp pp pp
-3.0000000000000000e+01 3.0000000000000000e+01
-3.0000000000000000e+01 3.0000000000000000e+01
-3.0000000000000000e+01 3.0000000000000000e+01
ITEM: ATOMS id type xs ys zs
3 1 0.871169 0.334257 0.00513418
5 1 0.852054 0.344807 0.999792
4 1 0.866976 0.349492 0.994728
1 1 0.855815 0.32359 0.983019
2 1 0.870127 0.33209 0.986057
ITEM: TIMESTEP
6700
ITEM: NUMBER OF ATOMS
5
ITEM: BOX BOUNDS pp pp pp
-3.0000000000000000e+01 3.0000000000000000e+01
-3.0000000000000000e+01 3.0000000000000000e+01
-3.0000000000000000e+01 3.0000000000000000e+01
ITEM: ATOMS id type xs ys zs
3 1 0.873895 0.33369 0.0026309
5 1 0.850166 0.346321 0.995919
4 1 0.867874 0.347631 0.994356
1 1 0.854056 0.322869 0.985015
2 1 0.866817 0.332446 0.987682
ITEM: TIMESTEP
6800
ITEM: NUMBER OF ATOMS
5
ITEM: BOX BOUNDS pp pp pp
-3.0000000000000000e+01 3.0000000000000000e+01
-3.0000000000000000e+01 3.0000000000000000e+01
-3.0000000000000000e+01 3.0000000000000000e+01
ITEM: ATOMS id type xs ys zs
3 1 0.876438 0.33327 -0.000470356
5 1 0.84918 0.347433 0.99199
4 1 0.868543 0.347746 0.995419
1 1 0.852335 0.322466 0.986955
2 1 0.863579 0.331159 0.98862
ITEM: TIMESTEP
6900
ITEM: NUMBER OF ATOMS
5
ITEM: BOX BOUNDS pp pp pp
-3.0000000000000000e+01 3.0000000000000000e+01
-3.0000000000000000e+01 3.0000000000000000e+01
-3.0000000000000000e+01 3.0000000000000000e+01
ITEM: ATOMS id type xs ys zs
3 1 0.878373 0.332897 0.996374
5 1 0.850149 0.34806 0.988538
4 1 0.867663 0.34824 0.996262
1 1 0.850121 0.321212 0.988729
2 1 0.861513 0.330569 0.989485
ITEM: TIMESTEP
7000
ITEM: NUMBER OF ATOMS
5
ITEM: BOX BOUNDS pp pp pp
-3.0000000000000000e+01 3.0000000000000000e+01
-3.0000000000000000e+01 3.0000000000000000e+01
-3.0000000000000000e+01 3.0000000000000000e+01
ITEM: ATOMS id type xs ys zs
3 1 0.878787 0.333094 0.993027
5 1 0.852885 0.348367 0.985618
4 1 0.86591 0.34788 0.996242
1 1 0.847542 0.319122 0.99056
2 1 0.860893 0.331327 0.990856
ITEM: TIMESTEP
7100
ITEM: NUMBER OF ATOMS
5
ITEM: BOX BOUNDS pp pp pp
-3.0000000000000000e+01 3.0000000000000000e+01
-3.0000000000000000e+01 3.0000000000000000e+01
-3.0000000000000000e+01 3.0000000000000000e+01
ITEM: ATOMS id type xs ys zs
1 1 0.845356 0.31776 0.992317
2 1 0.860183 0.331376 0.99167
5 1 0.855808 0.348596 0.983002
3 1 0.877173 0.334659 0.989599
4 1 0.865381 0.34719 0.996208
ITEM: TIMESTEP
7200
ITEM: NUMBER OF ATOMS
5
ITEM: BOX BOUNDS pp pp pp
-3.0000000000000000e+01 3.0000000000000000e+01
-3.0000000000000000e+01 3.0000000000000000e+01
-3.0000000000000000e+01 3.0000000000000000e+01
ITEM: ATOMS id type xs ys zs
1 1 0.844137 0.317799 0.993768
2 1 0.857734 0.329303 0.991837
5 1 0.859064 0.348011 0.980459
3 1 0.874094 0.337006 0.986317
4 1 0.86585 0.347077 0.996575
ITEM: TIMESTEP
7300
ITEM: NUMBER OF ATOMS
5
ITEM: BOX BOUNDS pp pp pp
-3.0000000000000000e+01 3.0000000000000000e+01
-3.0000000000000000e+01 3.0000000000000000e+01
-3.0000000000000000e+01 3.0000000000000000e+01
ITEM: ATOMS id type xs ys zs
1 1 0.843284 0.318123 0.995107
2 1 0.855715 0.327607 0.991655
5 1 0.861094 0.348462 0.977914
3 1 0.871639 0.337135 0.984156
4 1 0.866077 0.3467 0.996677
ITEM: TIMESTEP
7400
ITEM: NUMBER OF ATOMS
5
ITEM: BOX BOUNDS pp pp pp
-3.0000000000000000e+01 3.0000000000000000e+01
-3.0000000000000000e+01 3.0000000000000000e+01
-3.0000000000000000e+01 3.0000000000000000e+01
ITEM: ATOMS id type xs ys zs
1 1 0.842163 0.318242 0.996442
2 1 0.855555 0.327247 0.990578
5 1 0.859905 0.352012 0.975319
3 1 0.870949 0.332778 0.984689
4 1 0.865787 0.346069 0.995113
ITEM: TIMESTEP
7500
ITEM: NUMBER OF ATOMS
5
ITEM: BOX BOUNDS pp pp pp
-3.0000000000000000e+01 3.0000000000000000e+01
-3.0000000000000000e+01 3.0000000000000000e+01
-3.0000000000000000e+01 3.0000000000000000e+01
ITEM: ATOMS id type xs ys zs
1 1 0.841153 0.318535 0.997775
2 1 0.855888 0.327072 0.989408
5 1 0.859475 0.354331 0.975353
3 1 0.869651 0.328557 0.985802
4 1 0.864785 0.345336 0.990934
ITEM: TIMESTEP
7600
ITEM: NUMBER OF ATOMS
5
ITEM: BOX BOUNDS pp pp pp
-3.0000000000000000e+01 3.0000000000000000e+01
-3.0000000000000000e+01 3.0000000000000000e+01
-3.0000000000000000e+01 3.0000000000000000e+01
ITEM: ATOMS id type xs ys zs
1 1 0.841072 0.319595 0.998592
2 1 0.854123 0.326497 0.988761
5 1 0.859374 0.355823 0.976621
3 1 0.86936 0.32512 0.987112