ITEM: TIMESTEP
200
ITEM: NUMBER OF ATOMS
5
ITEM: BOX BOUNDS pp pp pp
-3.0000000000000000e+01 3.0000000000000000e+01
-3.0000000000000000e+01 3.0000000000000000e+01
-3.0000000000000000e+01 3.0000000000000000e+01
ITEM: ATOMS id type x y z
1 1 23.9003 -11.6653 28.8929
2 1 24.1861 -10.6851 28.6731
3 1 24.4599 -9.70005 28.9028
4 1 25.1555 -9.13849 28.9824
5 1 25.4893 -8.34649 29.2727
ITEM: TIMESTEP
400
ITEM: NUMBER OF ATOMS
5
ITEM: BOX BOUNDS pp pp pp
-3.0000000000000000e+01 3.0000000000000000e+01
-3.0000000000000000e+01 3.0000000000000000e+01
-3.0000000000000000e+01 3.0000000000000000e+01
ITEM: ATOMS id type x y z
1 1 23.9626 -11.535 29.2374
2 1 24.0989 -10.579 28.6673
3 1 24.1726 -9.65052 28.848
4 1 25.3295 -9.31807 28.777
5 1 25.637 -8.44755 29.2579
ITEM: TIMESTEP
600
ITEM: NUMBER OF ATOMS
5
ITEM: BOX BOUNDS pp pp pp
-3.0000000000000000e+01 3.0000000000000000e+01
-3.0000000000000000e+01 3.0000000000000000e+01
-3.0000000000000000e+01 3.0000000000000000e+01
ITEM: ATOMS id type x y z
1 1 24.0193 -11.2418 29.5165
2 1 24.0037 -10.642 28.7468
3 1 24.2167 -9.47885 28.8252
4 1 25.185 -9.51357 28.644
5 1 25.698 -8.64309 29.1739
ITEM: TIMESTEP
800
ITEM: NUMBER OF ATOMS
5
ITEM: BOX BOUNDS pp pp pp
-3.0000000000000000e+01 3.0000000000000000e+01
-3.0000000000000000e+01 3.0000000000000000e+01
-3.0000000000000000e+01 3.0000000000000000e+01
ITEM: ATOMS id type x y z
1 1 24.0237 -10.9414 29.7785
2 1 23.9497 -10.365 28.8307
3 1 24.2343 -9.60876 28.8276
4 1 25.135 -9.55293 28.6008
5 1 25.6155 -8.99832 28.979
ITEM: TIMESTEP
1000
ITEM: NUMBER OF ATOMS
5
ITEM: BOX BOUNDS pp pp pp
-3.0000000000000000e+01 3.0000000000000000e+01
-3.0000000000000000e+01 3.0000000000000000e+01
-3.0000000000000000e+01 3.0000000000000000e+01
ITEM: ATOMS id type x y z
1 1 24.0136 -10.4888 29.9009
2 1 23.8484 -10.4128 29.0491
3 1 24.2562 -9.46846 28.8963
4 1 25.0441 -9.73558 28.3694
5 1 25.6541 -9.18641 28.9572
ITEM: TIMESTEP
1200
ITEM: NUMBER OF ATOMS
5
ITEM: BOX BOUNDS pp pp pp
-3.0000000000000000e+01 3.0000000000000000e+01
-3.0000000000000000e+01 3.0000000000000000e+01
-3.0000000000000000e+01 3.0000000000000000e+01
ITEM: ATOMS id type x y z
1 1 24 -9.99021 -29.9035
2 1 23.7332 -10.4469 29.1361
3 1 24.2838 -9.45193 29.029
4 1 24.9496 -9.90701 28.2141
5 1 25.6263 -9.34023 28.9302
ITEM: TIMESTEP
1400
ITEM: NUMBER OF ATOMS
5
ITEM: BOX BOUNDS pp pp pp
-3.0000000000000000e+01 3.0000000000000000e+01
-3.0000000000000000e+01 3.0000000000000000e+01
-3.0000000000000000e+01 3.0000000000000000e+01
ITEM: ATOMS id type x y z
1 1 23.9656 -9.53421 -29.8973
2 1 23.7395 -10.1916 29.3206
3 1 24.408 -9.73319 29.0961
4 1 24.8229 -9.89878 28.366
5 1 25.4111 -9.62384 28.7473
ITEM: TIMESTEP
1600
ITEM: NUMBER OF ATOMS
5
ITEM: BOX BOUNDS pp pp pp
-3.0000000000000000e+01 3.0000000000000000e+01
-3.0000000000000000e+01 3.0000000000000000e+01
-3.0000000000000000e+01 3.0000000000000000e+01
ITEM: ATOMS id type x y z
1 1 23.8657 -9.12202 -29.9946
2 1 23.5979 -9.95936 29.6366
3 1 24.577 -9.82562 29.2953
4 1 24.4297 -10.0831 28.2139
5 1 25.5773 -9.78101 28.6397
ITEM: TIMESTEP
1800
ITEM: NUMBER OF ATOMS
5
ITEM: BOX BOUNDS pp pp pp
-3.0000000000000000e+01 3.0000000000000000e+01
-3.0000000000000000e+01 3.0000000000000000e+01
-3.0000000000000000e+01 3.0000000000000000e+01
ITEM: ATOMS id type x y z
1 1 23.7665 -8.71131 29.9217
2 1 23.5454 -9.79536 29.8684
3 1 24.6199 -9.90502 29.3531
4 1 24.4005 -10.1402 28.4
5 1 25.3701 -9.96941 28.3925
ITEM: TIMESTEP
2000
ITEM: NUMBER OF ATOMS
5
ITEM: BOX BOUNDS pp pp pp
-3.0000000000000000e+01 3.0000000000000000e+01
-3.0000000000000000e+01 3.0000000000000000e+01
-3.0000000000000000e+01 3.0000000000000000e+01
ITEM: ATOMS id type x y z
1 1 23.6355 -8.54859 29.7759
2 1 23.8335 -9.48424 29.9774
3 1 24.341 -9.96197 29.4727
4 1 24.3644 -10.1949 28.6885
5 1 25.1354 -10.1936 28.13
ITEM: TIMESTEP
2200
ITEM: NUMBER OF ATOMS
5
ITEM: BOX BOUNDS pp pp pp
-3.0000000000000000e+01 3.0000000000000000e+01
-3.0000000000000000e+01 3.0000000000000000e+01
-3.0000000000000000e+01 3.0000000000000000e+01
ITEM: ATOMS id type x y z
1 1 23.499 -8.40482 29.6025
2 1 24.034 -9.07879 -29.8026
3 1 24.1447 -10.0621 29.7853
4 1 24.2187 -10.3036 28.7146
5 1 24.9775 -10.4025 27.8704
ITEM: TIMESTEP
2400
ITEM: NUMBER OF ATOMS
5
ITEM: BOX BOUNDS pp pp pp
-3.0000000000000000e+01 3.0000000000000000e+01
-3.0000000000000000e+01 3.0000000000000000e+01
-3.0000000000000000e+01 3.0000000000000000e+01
ITEM: ATOMS id type x y z
1 1 23.4428 -8.35097 29.5449
2 1 24.1291 -8.85764 -29.7127
3 1 24.0331 -10.0509 29.9268
4 1 24.2501 -10.3451 28.8086
5 1 24.5976 -10.5733 27.8182
ITEM: TIMESTEP
2600
ITEM: NUMBER OF ATOMS
5
ITEM: BOX BOUNDS pp pp pp
-3.0000000000000000e+01 3.0000000000000000e+01
-3.0000000000000000e+01 3.0000000000000000e+01
-3.0000000000000000e+01 3.0000000000000000e+01
ITEM: ATOMS id type x y z
1 1 23.4684 -8.43999 29.6709
2 1 24.0585 -8.95978 -29.8882
3 1 24.054 -9.72742 29.8489
4 1 24.2605 -10.3362 29.0468
5 1 24.1326 -10.7386 27.997
ITEM: TIMESTEP
2800
ITEM: NUMBER OF ATOMS
5
ITEM: BOX BOUNDS pp pp pp
-3.0000000000000000e+01 3.0000000000000000e+01
-3.0000000000000000e+01 3.0000000000000000e+01
-3.0000000000000000e+01 3.0000000000000000e+01
ITEM: ATOMS id type x y z
1 1 23.3289 -8.45322 29.7076
2 1 24.1001 -8.86671 -29.8494
3 1 24.0787 -9.66856 29.6093
4 1 24.1905 -10.369 29.0828
5 1 23.6352 -10.8135 28.4025
ITEM: TIMESTEP
3000
ITEM: NUMBER OF ATOMS
5
ITEM: BOX BOUNDS pp pp pp
-3.0000000000000000e+01 3.0000000000000000e+01
-3.0000000000000000e+01 3.0000000000000000e+01
-3.0000000000000000e+01 3.0000000000000000e+01
ITEM: ATOMS id type x y z
1 1 23.1902 -8.48675 29.7453
2 1 24.1076 -8.73816 -29.7957
3 1 24.032 -9.49975 29.4075
4 1 24.1375 -10.5571 29.015
5 1 23.1197 -10.8949 28.8518
ITEM: TIMESTEP
3200
ITEM: NUMBER OF ATOMS
5
ITEM: BOX BOUNDS pp pp pp
-3.0000000000000000e+01 3.0000000000000000e+01
-3.0000000000000000e+01 3.0000000000000000e+01
-3.0000000000000000e+01 3.0000000000000000e+01
ITEM: ATOMS id type x y z
1 1 23.1109 -8.57571 29.7881
2 1 24.0025 -8.72475 -29.9549
3 1 23.9208 -9.38216 29.2628
4 1 23.866 -10.5698 29.0166
5 1 22.8303 -10.9036 29.3078
ITEM: TIMESTEP
3400
ITEM: NUMBER OF ATOMS
5
ITEM: BOX BOUNDS pp pp pp
-3.0000000000000000e+01 3.0000000000000000e+01
-3.0000000000000000e+01 3.0000000000000000e+01
-3.0000000000000000e+01 3.0000000000000000e+01
ITEM: ATOMS id type x y z
1 1 22.961 -8.72477 29.8119
2 1 24.0168 -8.77573 29.7911
3 1 23.7571 -9.51856 29.1025
4 1 23.3275 -10.2628 29.2053
5 1 22.7957 -10.8184 29.701
ITEM: TIMESTEP
3600
ITEM: NUMBER OF ATOMS
5
ITEM: BOX BOUNDS pp pp pp
-3.0000000000000000e+01 3.0000000000000000e+01
-3.0000000000000000e+01 3.0000000000000000e+01
-3.0000000000000000e+01 3.0000000000000000e+01
ITEM: ATOMS id type x y z
1 1 22.9504 -8.97775 29.8296
2 1 23.9575 -8.89067 29.5492
3 1 23.599 -9.42148 29.0194
4 1 22.7742 -10.0369 29.3632
5 1 22.6993 -10.7925 -29.8861
ITEM: TIMESTEP
3800
ITEM: NUMBER OF ATOMS
5
ITEM: BOX BOUNDS pp pp pp
-3.0000000000000000e+01 3.0000000000000000e+01
-3.0000000000000000e+01 3.0000000000000000e+01
-3.0000000000000000e+01 3.0000000000000000e+01
ITEM: ATOMS id type x y z
1 1 23.0415 -9.16929 29.8701
2 1 23.8561 -8.8179 29.5238
3 1 23.2507 -9.53966 28.8146
4 1 22.3252 -9.94832 29.5003
5 1 22.5897 -10.6542 -29.6329
ITEM: TIMESTEP
4000
ITEM: NUMBER OF ATOMS
5
ITEM: BOX BOUNDS pp pp pp
-3.0000000000000000e+01 3.0000000000000000e+01
-3.0000000000000000e+01 3.0000000000000000e+01
-3.0000000000000000e+01 3.0000000000000000e+01
ITEM: ATOMS id type x y z
1 1 23.1002 -9.33168 29.9751
2 1 23.6859 -8.87825 29.312
3 1 22.839 -9.62856 28.9904
4 1 22.2232 -9.98934 29.5647
5 1 22.4873 -10.3002 -29.6084
ITEM: TIMESTEP
4200
ITEM: NUMBER OF ATOMS
5
ITEM: BOX BOUNDS pp pp pp
-3.0000000000000000e+01 3.0000000000000000e+01
-3.0000000000000000e+01 3.0000000000000000e+01
-3.0000000000000000e+01 3.0000000000000000e+01
ITEM: ATOMS id type x y z
1 1 23.2687 -9.4234 -29.9111
2 1 23.3248 -9.14191 28.997
3 1 22.627 -9.53207 29.0887
4 1 22.0707 -10.0488 29.5941
5 1 22.4198 -9.99425 -29.4596
ITEM: TIMESTEP
4400
ITEM: NUMBER OF ATOMS
5
ITEM: BOX BOUNDS pp pp pp
-3.0000000000000000e+01 3.0000000000000000e+01
-3.0000000000000000e+01 3.0000000000000000e+01
-3.0000000000000000e+01 3.0000000000000000e+01
ITEM: ATOMS id type x y z
1 1 23.485 -9.39159 29.8707
2 1 23.2274 -9.35298 28.8878
3 1 22.262 -9.48026 29.1294
4 1 21.9027 -10.1301 29.7232
5 1 22.2379 -9.81005 -29.2756
ITEM: TIMESTEP
4600
ITEM: NUMBER OF ATOMS
5
ITEM: BOX BOUNDS pp pp pp
-3.0000000000000000e+01 3.0000000000000000e+01
-3.0000000000000000e+01 3.0000000000000000e+01
-3.0000000000000000e+01 3.0000000000000000e+01
ITEM: ATOMS id type x y z
1 1 23.6517 -9.3567 29.6399
2 1 23.1241 -9.57889 28.8462
3 1 21.9738 -9.43981 29.1606
4 1 21.8227 -10.2052 29.9856
5 1 22.0458 -9.63982 -29.2947
ITEM: TIMESTEP
4800
ITEM: NUMBER OF ATOMS
5
ITEM: BOX BOUNDS pp pp pp
-3.0000000000000000e+01 3.0000000000000000e+01
-3.0000000000000000e+01 3.0000000000000000e+01
-3.0000000000000000e+01 3.0000000000000000e+01
ITEM: ATOMS id type x y z
1 1 23.7917 -9.33445 29.4225
2 1 22.7567 -9.72963 28.8631
3 1 22.0218 -9.59244 29.3181
4 1 21.7798 -10.1704 -29.9983
5 1 21.8451 -9.45787 -29.2578
ITEM: TIMESTEP
5000
ITEM: NUMBER OF ATOMS
5
ITEM: BOX BOUNDS pp pp pp
-3.0000000000000000e+01 3.0000000000000000e+01
-3.0000000000000000e+01 3.0000000000000000e+01
-3.0000000000000000e+01 3.0000000000000000e+01
ITEM: ATOMS id type x y z
1 1 23.5856 -9.42952 29.0042
2 1 22.7917 -9.79346 29.0308
3 1 21.9577 -9.64208 29.526
4 1 21.7479 -10.1697 -29.8568
5 1 21.6574 -9.32174 -29.3091
ITEM: TIMESTEP
5200
ITEM: NUMBER OF ATOMS
5
ITEM: BOX BOUNDS pp pp pp
-3.0000000000000000e+01 3.0000000000000000e+01
-3.0000000000000000e+01 3.0000000000000000e+01
-3.0000000000000000e+01 3.0000000000000000e+01
ITEM: ATOMS id type x y z
1 1 23.5315 -9.46277 28.546
2 1 22.7932 -9.91268 29.249
3 1 21.943 -9.51722 29.6366
4 1 21.6482 -10.2935 -29.5145
5 1 21.5135 -9.20584 -29.4753
ITEM: TIMESTEP
5400
ITEM: NUMBER OF ATOMS
5
ITEM: BOX BOUNDS pp pp pp
-3.0000000000000000e+01 3.0000000000000000e+01
-3.0000000000000000e+01 3.0000000000000000e+01
-3.0000000000000000e+01 3.0000000000000000e+01
ITEM: ATOMS id type x y z
1 1 23.3288 -9.58702 28.2831
2 1 22.8724 -9.95818 29.3065
3 1 22.0218 -9.69592 29.8063
4 1 21.5663 -10.0599 -29.4267
5 1 21.3314 -9.15187 -29.4402
ITEM: TIMESTEP
5600
ITEM: NUMBER OF ATOMS
5
ITEM: BOX BOUNDS pp pp pp
-3.0000000000000000e+01 3.0000000000000000e+01
-3.0000000000000000e+01 3.0000000000000000e+01
-3.0000000000000000e+01 3.0000000000000000e+01
ITEM: ATOMS id type x y z
1 1 22.9136 -9.84448 28.254
2 1 23.0301 -9.84764 29.1756
3 1 22.213 -9.94917 29.9401
4 1 21.4514 -9.87675 -29.3458
5 1 21.1614 -9.01576 -29.4006
ITEM: TIMESTEP
5800
ITEM: NUMBER OF ATOMS
5
ITEM: BOX BOUNDS pp pp pp
-3.0000000000000000e+01 3.0000000000000000e+01
-3.0000000000000000e+01 3.0000000000000000e+01
-3.0000000000000000e+01 3.0000000000000000e+01
ITEM: ATOMS id type x y z
1 1 22.5032 -10.0292 28.1856
2 1 23.0234 -9.74927 29.2306
3 1 22.4667 -10.135 29.9796
4 1 21.4456 -9.85457 -29.3703
5 1 20.9614 -8.77674 -29.3872
ITEM: TIMESTEP
6000
ITEM: NUMBER OF ATOMS
5
ITEM: BOX BOUNDS pp pp pp
-3.0000000000000000e+01 3.0000000000000000e+01
-3.0000000000000000e+01 3.0000000000000000e+01
-3.0000000000000000e+01 3.0000000000000000e+01
ITEM: ATOMS id type x y z
1 1 22.2817 -10.114 28.4044
2 1 22.8334 -9.8165 29.0878
3 1 22.3924 -10.2004 -29.8615
4 1 21.6172 -9.58064 -29.6605
5 1 20.8808 -8.86305 -29.4054
ITEM: TIMESTEP
6200
ITEM: NUMBER OF ATOMS
5
ITEM: BOX BOUNDS pp pp pp
-3.0000000000000000e+01 3.0000000000000000e+01
-3.0000000000000000e+01 3.0000000000000000e+01
-3.0000000000000000e+01 3.0000000000000000e+01
ITEM: ATOMS id type x y z
1 1 21.9944 -10.2986 28.5924
2 1 22.5873 -9.98137 29.2815
3 1 22.3912 -10.0937 -29.9855
4 1 21.8203 -9.19822 -29.9739
5 1 20.8745 -9.11798 -29.4533
ITEM: TIMESTEP
6400
ITEM: NUMBER OF ATOMS
5
ITEM: BOX BOUNDS pp pp pp
-3.0000000000000000e+01 3.0000000000000000e+01
-3.0000000000000000e+01 3.0000000000000000e+01
-3.0000000000000000e+01 3.0000000000000000e+01
ITEM: ATOMS id type x y z
1 1 21.6318 -10.4795 28.7617
2 1 22.4795 -10.0493 29.2526
3 1 22.1543 -9.92135 -29.8061
4 1 21.9942 -8.99325 29.7962
5 1 21.0718 -9.34595 -29.6273
ITEM: TIMESTEP
6600
ITEM: NUMBER OF ATOMS
5
ITEM: BOX BOUNDS pp pp pp
-3.0000000000000000e+01 3.0000000000000000e+01
-3.0000000000000000e+01 3.0000000000000000e+01
-3.0000000000000000e+01 3.0000000000000000e+01
ITEM: ATOMS id type x y z
1 1 21.3489 -10.5846 28.9811
2 1 22.2076 -10.0746 29.1634
3 1 22.2701 -9.94459 -29.6919
4 1 22.0186 -9.03047 29.6837
5 1 21.1232 -9.31158 29.9875
ITEM: TIMESTEP
6800
ITEM: NUMBER OF ATOMS
5
ITEM: BOX BOUNDS pp pp pp
-3.0000000000000000e+01 3.0000000000000000e+01
-3.0000000000000000e+01 3.0000000000000000e+01
-3.0000000000000000e+01 3.0000000000000000e+01
ITEM: ATOMS id type x y z
1 1 21.1401 -10.6521 29.2173
2 1 21.8147 -10.1305 29.3172
3 1 22.5863 -10.0038 -30.0282
4 1 22.1126 -9.13523 29.7252
5 1 20.9508 -9.154 29.5194
ITEM: TIMESTEP
7000
ITEM: NUMBER OF ATOMS
5
ITEM: BOX BOUNDS pp pp pp
-3.0000000000000000e+01 3.0000000000000000e+01
-3.0000000000000000e+01 3.0000000000000000e+01
-3.0000000000000000e+01 3.0000000000000000e+01
ITEM: ATOMS id type x y z
1 1 20.8525 -10.8527 29.4336
2 1 21.6536 -10.1204 29.4513
3 1 22.7272 -10.0143 29.5816
4 1 21.9546 -9.12722 29.7745
5 1 21.1731 -9.09799 29.1371
ITEM: TIMESTEP
7200
ITEM: NUMBER OF ATOMS
5
ITEM: BOX BOUNDS pp pp pp
-3.0000000000000000e+01 3.0000000000000000e+01
-3.0000000000000000e+01 3.0000000000000000e+01
-3.0000000000000000e+01 3.0000000000000000e+01
ITEM: ATOMS id type x y z
1 1 20.6482 -10.9321 29.6261
2 1 21.464 -10.2418 29.5102
3 1 22.4456 -9.77963 29.179
4 1 21.951 -9.17539 29.7945
5 1 21.5438 -9.11931 28.8275
ITEM: TIMESTEP
7400
ITEM: NUMBER OF ATOMS
5
ITEM: BOX BOUNDS pp pp pp
-3.0000000000000000e+01 3.0000000000000000e+01
-3.0000000000000000e+01 3.0000000000000000e+01
-3.0000000000000000e+01 3.0000000000000000e+01
ITEM: ATOMS id type x y z
1 1 20.5298 -10.9055 29.7865
2 1 21.3333 -10.3652 29.4347
3 1 22.257 -10.0333 29.0813
4 1 21.9472 -9.23587 29.7068
5 1 21.5943 -8.87929 28.5192
ITEM: TIMESTEP
7600
ITEM: NUMBER OF ATOMS
5
ITEM: BOX BOUNDS pp pp pp
-3.0000000000000000e+01 3.0000000000000000e+01
-3.0000000000000000e+01 3.0000000000000000e+01
-3.0000000000000000e+01 3.0000000000000000e+01
ITEM: ATOMS id type x y z
1 1 20.4643 -10.8243 29.9155
2 1 21.2474 -10.4102 29.3256
3 1 22.1616 -10.4928 29.2267
4 1 21.8373 -9.37897 29.121
5 1 21.5625 -8.6506 28.5972
ITEM: TIMESTEP
7800
ITEM: NUMBER OF ATOMS
5
ITEM: BOX BOUNDS pp pp pp
-3.0000000000000000e+01 3.0000000000000000e+01
-3.0000000000000000e+01 3.0000000000000000e+01
-3.0000000000000000e+01 3.0000000000000000e+01
ITEM: ATOMS id type x y z
1 1 20.4584 -10.6507 29.9903
2 1 20.9961 -10.4457 29.2325
3 1 22.0878 -10.6417 29.3147
4 1 21.7965 -9.87468 28.5996
5 1 21.6142 -8.49036 28.7544
ITEM: TIMESTEP
8000
ITEM: NUMBER OF ATOMS
5
ITEM: BOX BOUNDS pp pp pp
-3.0000000000000000e+01 3.0000000000000000e+01
-3.0000000000000000e+01 3.0000000000000000e+01
-3.0000000000000000e+01 3.0000000000000000e+01
ITEM: ATOMS id type x y z
1 1 20.4017 -10.4981 -29.9476
2 1 20.9971 -10.4903 29.0678
3 1 21.8053 -10.552 29.2888
4 1 21.7142 -9.88594 28.3903
5 1 21.7904 -9.03185 28.8518
ITEM: TIMESTEP
8200
ITEM: NUMBER OF ATOMS
5
ITEM: BOX BOUNDS pp pp pp
-3.0000000000000000e+01 3.0000000000000000e+01
-3.0000000000000000e+01 3.0000000000000000e+01
-3.0000000000000000e+01 3.0000000000000000e+01
ITEM: ATOMS id type x y z
1 1 20.4752 -10.3646 29.9092
2 1 20.6891 -10.5374 29.052
3 1 21.6847 -10.4559 29.2436
4 1 21.6295 -9.94883 28.2808
5 1 22.0539 -9.48123 28.9773
ITEM: TIMESTEP
8400
ITEM: NUMBER OF ATOMS
5
ITEM: BOX BOUNDS pp pp pp
-3.0000000000000000e+01 3.0000000000000000e+01
-3.0000000000000000e+01 3.0000000000000000e+01
-3.0000000000000000e+01 3.0000000000000000e+01
ITEM: ATOMS id type x y z
1 1 20.5952 -10.2392 29.9104
2 1 20.4528 -10.542 28.8785
3 1 21.3771 -10.7517 29.192
4 1 21.5336 -10.1711 28.3519
5 1 22.4087 -9.33638 28.968
ITEM: TIMESTEP
8600
ITEM: NUMBER OF ATOMS
5
ITEM: BOX BOUNDS pp pp pp
-3.0000000000000000e+01 3.0000000000000000e+01
-3.0000000000000000e+01 3.0000000000000000e+01
-3.0000000000000000e+01 3.0000000000000000e+01
ITEM: ATOMS id type x y z
1 1 20.6882 -10.1573 29.7462
2 1 20.311 -10.4995 28.8383
3 1 21.0614 -10.8888 29.0681
4 1 21.7831 -10.1223 28.8637
5 1 22.3893 -9.58336 28.6724
ITEM: TIMESTEP
8800
ITEM: NUMBER OF ATOMS
5
ITEM: BOX BOUNDS pp pp pp
-3.0000000000000000e+01 3.0000000000000000e+01
-3.0000000000000000e+01 3.0000000000000000e+01
-3.0000000000000000e+01 3.0000000000000000e+01
ITEM: ATOMS id type x y z
1 1 20.7503 -10.0054 29.4764
2 1 20.0787 -10.3533 28.8613
3 1 21.0454 -11.0206 28.9734
4 1 21.7951 -10.2892 29.4269
5 1 22.457 -9.75222 28.3452
ITEM: TIMESTEP
9000
ITEM: NUMBER OF ATOMS
5
ITEM: BOX BOUNDS pp pp pp
-3.0000000000000000e+01 3.0000000000000000e+01
-3.0000000000000000e+01 3.0000000000000000e+01
-3.0000000000000000e+01 3.0000000000000000e+01
ITEM: ATOMS id type x y z
1 1 20.8448 -9.85709 29.2483
2 1 20.0865 -10.3937 28.8901
3 1 21.0351 -10.8089 28.9467
4 1 21.9085 -10.4335 29.3777
5 1 22.234 -10.1238 28.5696
ITEM: TIMESTEP
9200
ITEM: NUMBER OF ATOMS
5
ITEM: BOX BOUNDS pp pp pp
-3.0000000000000000e+01 3.0000000000000000e+01
-3.0000000000000000e+01 3.0000000000000000e+01
-3.0000000000000000e+01 3.0000000000000000e+01
ITEM: ATOMS id type x y z
1 1 20.9415 -9.58015 29.0408
2 1 20.2399 -10.4618 28.9401
3 1 21.0662 -10.7559 28.8732
4 1 21.9324 -10.5592 29.3596
5 1 22.0226 -10.4806 28.6755
ITEM: TIMESTEP
9400
ITEM: NUMBER OF ATOMS
5
ITEM: BOX BOUNDS pp pp pp
-3.0000000000000000e+01 3.0000000000000000e+01
-3.0000000000000000e+01 3.0000000000000000e+01
-3.0000000000000000e+01 3.0000000000000000e+01
ITEM: ATOMS id type x y z
1 1 20.9703 -9.63469 28.7831
2 1 20.2788 -10.2416 29.03
3 1 21.0757 -10.8375 28.8373
4 1 21.7528 -10.6813 29.6644
5 1 22.186 -10.5769 28.3262
ITEM: TIMESTEP
9600
ITEM: NUMBER OF ATOMS
5
ITEM: BOX BOUNDS pp pp pp
-3.0000000000000000e+01 3.0000000000000000e+01
-3.0000000000000000e+01 3.0000000000000000e+01
-3.0000000000000000e+01 3.0000000000000000e+01
ITEM: ATOMS id type x y z
1 1 21.0807 -9.8167 28.5392
2 1 20.305 -10.0433 29.1746
3 1 21.1184 -10.8069 28.8338
4 1 21.7014 -10.7201 29.35
5 1 22.143 -10.5829 28.6378
ITEM: TIMESTEP
9800
ITEM: NUMBER OF ATOMS
5
ITEM: BOX BOUNDS pp pp pp
-3.0000000000000000e+01 3.0000000000000000e+01
-3.0000000000000000e+01 3.0000000000000000e+01
-3.0000000000000000e+01 3.0000000000000000e+01
ITEM: ATOMS id type x y z
1 1 21.3052 -9.89746 28.3377
2 1 20.6014 -10.0366 29.2228
3 1 20.6106 -10.8796 28.8194
4 1 21.6415 -10.7128 29.3518
5 1 22.3203 -10.4583 28.7843
ITEM: TIMESTEP
10000
ITEM: NUMBER OF ATOMS
5
ITEM: BOX BOUNDS pp pp pp
-3.0000000000000000e+01 3.0000000000000000e+01
-3.0000000000000000e+01 3.0000000000000000e+01
-3.0000000000000000e+01 3.0000000000000000e+01
ITEM: ATOMS id type x y z
1 1 21.474 -10.1688 28.3573
2 1 20.9424 -9.83377 29.0989
3 1 20.4433 -10.9539 28.9248
4 1 21.3824 -10.8999 29.3213
5 1 22.4228 -10.2774 28.8301
